/*--------------------------------*- C++ -*----------------------------------*\
  =========                 |
  \\      /  F ield         | OpenFOAM: The Open Source CFD Toolbox
   \\    /   O peration     | Website:  https://openfoam.org
    \\  /    A nd           | Version:  10
     \\/     M anipulation  |
\*---------------------------------------------------------------------------*/
FoamFile
{
    format      ascii;
    class       volVectorField;
    location    "0";
    object      vorticity;
}
// * * * * * * * * * * * * * * * * * * * * * * * * * * * * * * * * * * * * * //

dimensions      [0 0 -1 0 0 0 0];

internalField   nonuniform List<vector> 
28400
(
(0 -4.9387e-18 -165.04)
(0 -0 0)
(0 -6.56261e-17 0)
(0 6.5847e-17 0)
(0 3.86962e-18 0)
(0 -5.09172e-17 0)
(0 5.46683e-17 0)
(0 -4.49187e-17 0)
(0 5.42069e-17 0)
(0 -3.95536e-17 0)
(0 5.29848e-18 0)
(0 3.97271e-17 0)
(0 -9.30356e-18 0)
(0 6.96839e-17 0)
(0 -6.52066e-17 0)
(0 -7.62292e-18 0)
(0 -0 0)
(0 5.32492e-17 0)
(0 -5.59291e-17 0)
(0 -0 0)
(0 -0 0)
(0 4.03122e-17 0)
(0 -0 0)
(0 -3.49458e-17 0)
(0 -0 0)
(0 3.02167e-17 0)
(0 -2.80706e-17 0)
(0 -0 0)
(0 -2.41773e-17 0)
(0 -1.1208e-17 0)
(0 4.15383e-17 0)
(0 -9.61529e-18 0)
(0 -0 0)
(0 -1.64541e-17 0)
(0 3.04097e-17 0)
(0 -2.80824e-17 0)
(0 -0 0)
(0 -0 0)
(0 -2.2029e-17 0)
(0 2.02903e-17 0)
(0 -1.86768e-17 0)
(0 5.15425e-17 0)
(0 -4.73846e-17 0)
(0 -0 0)
(0 -0 0)
(0 -0 0)
(0 -0 0)
(0 -2.05583e-17 0)
(0 1.88331e-17 0)
(0 1.72432e-17 0)
(0 8.88966e-17 -171.143)
(0 -6.97387e-17 0)
(0 6.1251e-17 0)
(0 -1.31694e-16 0)
(0 -3.86962e-18 0)
(0 5.09172e-17 0)
(0 -0 0)
(0 -1.28339e-17 0)
(0 -6.02299e-18 0)
(0 -1.1301e-17 0)
(0 -5.29848e-18 0)
(0 4.96589e-18 0)
(0 9.30356e-18 0)
(0 -0 0)
(0 -0 0)
(0 7.62292e-18 0)
(0 -5.70016e-17 0)
(0 -0 0)
(0 5.59291e-17 0)
(0 -4.63874e-17 0)
(0 -0 0)
(0 4.03122e-17 0)
(0 -0 0)
(0 -8.73644e-18 0)
(0 8.12644e-18 0)
(0 -1.51083e-17 0)
(0 -0 0)
(0 -1.30299e-17 0)
(0 2.41773e-17 0)
(0 3.3624e-17 0)
(0 -4.15383e-17 0)
(0 9.61529e-18 0)
(0 -0 0)
(0 3.29082e-17 0)
(0 -0 0)
(0 4.21237e-17 0)
(0 -2.59162e-17 0)
(0 -2.39015e-17 0)
(0 4.40581e-17 0)
(0 -0 0)
(0 -0 0)
(0 -0 0)
(0 1.57949e-17 0)
(0 -1.45118e-17 0)
(0 -0 0)
(0 2.44555e-17 0)
(0 -4.48577e-17 0)
(0 2.05583e-17 0)
(0 -1.88331e-17 0)
(0 -1.72432e-17 0)
(0 -4.9387e-18 -176.982)
(0 -4.64925e-18 0)
(0 4.37507e-18 0)
(0 -6.5847e-17 0)
(0 6.19139e-17 0)
(0 -7.27389e-18 0)
(0 -0 0)
(0 -0 0)
(0 6.02299e-18 0)
(0 5.08546e-17 0)
(0 -4.23879e-17 0)
(0 -8.44201e-17 0)
(0 7.44285e-17 0)
(0 6.09734e-17 0)
(0 -7.33574e-17 0)
(0 -7.62292e-18 0)
(0 5.70016e-17 0)
(0 -1.06498e-16 0)
(0 4.97148e-17 0)
(0 -0 0)
(0 4.32565e-17 0)
(0 -5.03903e-17 0)
(0 -0 0)
(0 8.73644e-18 0)
(0 -8.12644e-18 0)
(0 4.5325e-17 0)
(0 -5.61412e-17 0)
(0 2.60599e-17 0)
(0 -3.6266e-17 0)
(0 3.3624e-17 0)
(0 -4.15383e-17 0)
(0 7.69223e-17 0)
(0 -3.55883e-17 0)
(0 -4.93623e-17 0)
(0 4.56146e-17 0)
(0 -1.40412e-17 0)
(0 -1.29581e-17 0)
(0 -0 0)
(0 -0 0)
(0 -0 0)
(0 -1.86768e-17 0)
(0 -0 0)
(0 -1.57949e-17 0)
(0 1.45118e-17 0)
(0 -0 0)
(0 2.44555e-17 0)
(0 -0 0)
(0 -2.05583e-17 0)
(0 1.88331e-17 0)
(0 -0 0)
(0 -0 -182.548)
(0 -0 0)
(0 7.00012e-17 0)
(0 -6.17316e-17 0)
(0 -0 0)
(0 1.09108e-17 0)
(0 -0 0)
(0 6.41696e-18 0)
(0 -0 0)
(0 -0 0)
(0 -0 0)
(0 -4.96589e-18 0)
(0 9.30356e-18 0)
(0 8.71049e-18 0)
(0 -5.70558e-17 0)
(0 6.86063e-17 0)
(0 -7.1252e-18 0)
(0 -0 0)
(0 -4.97148e-17 0)
(0 4.63874e-17 0)
(0 1.08141e-17 0)
(0 1.00781e-17 0)
(0 -0 0)
(0 -8.73644e-18 0)
(0 8.12644e-18 0)
(0 -3.02167e-17 0)
(0 2.80706e-17 0)
(0 -1.303e-17 0)
(0 1.20887e-17 0)
(0 -1.1208e-17 0)
(0 -0 0)
(0 -0 0)
(0 -8.89708e-18 0)
(0 3.29082e-17 0)
(0 -3.04097e-17 0)
(0 -2.80824e-17 0)
(0 5.18324e-17 0)
(0 -3.58522e-17 0)
(0 -0 0)
(0 -0 0)
(0 -0 0)
(0 -0 0)
(0 -1.57949e-17 0)
(0 2.90236e-17 0)
(0 -0 0)
(0 -1.22278e-17 0)
(0 2.24288e-17 0)
(0 -2.05583e-17 0)
(0 -1.88331e-17 0)
(0 -1.72432e-17 0)
(0 7.40805e-17 -187.832)
(0 -1.53425e-16 0)
(0 7.00012e-17 0)
(0 -4.11544e-18 0)
(0 3.86962e-18 0)
(0 5.81911e-17 0)
(0 -6.15019e-17 0)
(0 -5.13357e-17 0)
(0 4.21609e-17 0)
(0 4.52041e-17 0)
(0 -7.94772e-17 0)
(0 4.96589e-17 0)
(0 3.25625e-17 0)
(0 -1.04526e-16 0)
(0 -0 0)
(0 6.09834e-17 0)
(0 7.1252e-18 0)
(0 -5.32492e-17 0)
(0 5.59291e-17 0)
(0 1.15968e-17 0)
(0 -1.08141e-17 0)
(0 -0 0)
(0 3.7545e-17 0)
(0 -2.62093e-17 0)
(0 -8.12644e-18 0)
(0 -0 0)
(0 2.80706e-17 0)
(0 -1.303e-17 0)
(0 -0 0)
(0 -2.2416e-17 0)
(0 -1.03846e-17 0)
(0 3.84612e-17 0)
(0 -1.77942e-17 0)
(0 4.93623e-17 0)
(0 4.56146e-17 0)
(0 -2.80824e-17 0)
(0 -1.29581e-17 0)
(0 1.19507e-17 0)
(0 -1.10145e-17 0)
(0 -0 0)
(0 -0 0)
(0 1.71808e-17 0)
(0 1.57949e-17 0)
(0 -1.45118e-17 0)
(0 -0 0)
(0 1.22278e-17 0)
(0 2.24288e-17 0)
(0 -2.05583e-17 0)
(0 -0 0)
(0 1.72432e-17 0)
(0 9.8774e-18 -192.827)
(0 4.64925e-18 0)
(0 -0 0)
(0 -6.5847e-17 0)
(0 5.80443e-17 0)
(0 -7.27389e-18 0)
(0 6.83354e-18 0)
(0 -5.13357e-17 0)
(0 -6.02299e-18 0)
(0 9.04082e-17 0)
(0 -4.76863e-17 0)
(0 -9.93178e-18 0)
(0 -4.65178e-18 0)
(0 -0 0)
(0 -0 0)
(0 -0 0)
(0 4.98764e-17 0)
(0 -4.6593e-17 0)
(0 3.72861e-17 0)
(0 -5.79842e-17 0)
(0 -4.32565e-17 0)
(0 4.03123e-17 0)
(0 -0 0)
(0 3.49458e-17 0)
(0 -5.68851e-17 0)
(0 -0 0)
(0 4.21059e-17 0)
(0 1.303e-17 0)
(0 -0 0)
(0 -4.4832e-17 0)
(0 3.11538e-17 0)
(0 2.88459e-17 0)
(0 -8.89708e-18 0)
(0 -3.29082e-17 0)
(0 1.52049e-17 0)
(0 -1.40412e-17 0)
(0 2.59162e-17 0)
(0 -1.19507e-17 0)
(0 4.40581e-17 0)
(0 -3.04354e-17 0)
(0 1.86768e-17 0)
(0 -0 0)
(0 -1.57949e-17 0)
(0 -1.45118e-17 0)
(0 -0 0)
(0 -0 0)
(0 -2.24288e-17 0)
(0 -0 0)
(0 -1.88332e-17 0)
(0 3.44865e-17 0)
(0 -4.9387e-18 -197.524)
(0 -7.43879e-17 0)
(0 7.00012e-17 0)
(0 -0 0)
(0 6.19139e-17 0)
(0 -5.45542e-17 0)
(0 -3.41677e-18 0)
(0 4.49187e-17 0)
(0 -4.21609e-17 0)
(0 -0 0)
(0 -0 0)
(0 4.96589e-18 0)
(0 4.65178e-18 0)
(0 -0 0)
(0 -2.44525e-17 0)
(0 3.04917e-17 0)
(0 -5.70016e-17 0)
(0 9.98422e-17 0)
(0 -3.72861e-17 0)
(0 4.0589e-17 0)
(0 -4.32565e-17 0)
(0 -0 0)
(0 -0 0)
(0 -0 0)
(0 -8.12644e-18 0)
(0 -0 0)
(0 -7.01765e-18 0)
(0 -0 0)
(0 -3.6266e-17 0)
(0 2.2416e-17 0)
(0 1.03846e-17 0)
(0 -9.61529e-18 0)
(0 -0 0)
(0 -1.64541e-17 0)
(0 -0 0)
(0 -1.40412e-17 0)
(0 -0 0)
(0 -0 0)
(0 1.10145e-17 0)
(0 -0 0)
(0 -1.86768e-17 0)
(0 1.71808e-17 0)
(0 -0 0)
(0 1.45118e-17 0)
(0 -1.33249e-17 0)
(0 1.22278e-17 0)
(0 2.24288e-17 0)
(0 -0 0)
(0 -0 0)
(0 1.72432e-17 0)
(0 -0 -201.917)
(0 -4.64925e-18 0)
(0 -0 0)
(0 4.11544e-18 0)
(0 -3.86962e-18 0)
(0 -0 0)
(0 3.41677e-18 0)
(0 -0 0)
(0 -0 0)
(0 -4.52041e-17 0)
(0 8.47757e-17 0)
(0 -7.94542e-17 0)
(0 2.79107e-17 0)
(0 -4.35524e-18 0)
(0 -4.07541e-17 0)
(0 3.81146e-17 0)
(0 7.1252e-18 0)
(0 -0 0)
(0 -6.21435e-18 0)
(0 -0 0)
(0 -4.32565e-17 0)
(0 4.03123e-17 0)
(0 9.38626e-18 0)
(0 -3.49458e-17 0)
(0 -0 0)
(0 3.02167e-17 0)
(0 -7.01765e-18 0)
(0 -0 0)
(0 3.6266e-17 0)
(0 -2.2416e-17 0)
(0 -1.03846e-17 0)
(0 -0 0)
(0 -1.77942e-17 0)
(0 8.22705e-18 0)
(0 1.52049e-17 0)
(0 -2.80824e-17 0)
(0 -2.59162e-17 0)
(0 2.39015e-17 0)
(0 1.10145e-17 0)
(0 -2.02903e-17 0)
(0 -1.86768e-17 0)
(0 -0 0)
(0 1.57949e-17 0)
(0 1.45118e-17 0)
(0 -1.33249e-17 0)
(0 4.89111e-17 0)
(0 -1.12144e-17 0)
(0 1.02792e-17 0)
(0 -0 0)
(0 -3.44865e-17 0)
(0 -0 -205.999)
(0 9.29849e-18 0)
(0 -4.37508e-18 0)
(0 6.17316e-17 0)
(0 -5.80443e-17 0)
(0 6.18281e-17 0)
(0 -1.09337e-16 0)
(0 1.09088e-16 0)
(0 -4.81839e-17 0)
(0 -5.65051e-18 0)
(0 -4.23879e-17 0)
(0 3.97271e-17 0)
(0 4.65178e-18 0)
(0 4.35524e-18 0)
(0 2.85279e-17 0)
(0 -3.04917e-17 0)
(0 -0 0)
(0 -0 0)
(0 6.21435e-18 0)
(0 5.79842e-18 0)
(0 -0 0)
(0 -0 0)
(0 -9.38626e-18 0)
(0 -0 0)
(0 -0 0)
(0 -0 0)
(0 -7.01765e-18 0)
(0 -6.51498e-18 0)
(0 3.6266e-17 0)
(0 -1.1208e-17 0)
(0 -0 0)
(0 -0 0)
(0 -0 0)
(0 2.46811e-17 0)
(0 -1.52049e-17 0)
(0 -0 0)
(0 -1.29581e-17 0)
(0 -1.19507e-17 0)
(0 -0 0)
(0 1.01451e-17 0)
(0 1.86768e-17 0)
(0 -0 0)
(0 -1.57949e-17 0)
(0 -1.45118e-17 0)
(0 1.33249e-17 0)
(0 -0 0)
(0 -1.12144e-17 0)
(0 -3.08375e-17 0)
(0 3.76663e-17 0)
(0 -1.72433e-17 0)
(0 2.46935e-18 -209.763)
(0 6.97387e-17 0)
(0 -1.35627e-16 0)
(0 6.5847e-17 0)
(0 -0 0)
(0 -3.63695e-18 0)
(0 -0 0)
(0 -0 0)
(0 -0 0)
(0 5.65051e-18 0)
(0 -4.23879e-17 0)
(0 3.97271e-17 0)
(0 -0 0)
(0 -0 0)
(0 -2.85279e-17 0)
(0 2.28688e-17 0)
(0 -0 0)
(0 -1.99685e-17 0)
(0 1.8643e-17 0)
(0 -0 0)
(0 5.40707e-18 0)
(0 -0 0)
(0 -0 0)
(0 -0 0)
(0 -3.25058e-17 0)
(0 -0 0)
(0 3.50882e-17 0)
(0 3.25749e-17 0)
(0 -3.6266e-17 0)
(0 -1.1208e-17 0)
(0 -1.03846e-17 0)
(0 1.92306e-17 0)
(0 -8.89708e-18 0)
(0 -0 0)
(0 -0 0)
(0 -1.40412e-17 0)
(0 1.29581e-17 0)
(0 1.19507e-17 0)
(0 -1.10145e-17 0)
(0 -2.02903e-17 0)
(0 -0 0)
(0 8.59042e-18 0)
(0 -1.57949e-17 0)
(0 1.45118e-17 0)
(0 -1.33249e-17 0)
(0 -1.22278e-17 0)
(0 -2.24288e-17 0)
(0 2.05583e-17 0)
(0 -0 0)
(0 1.72433e-17 0)
(0 -2.46935e-18 -213.203)
(0 -0 0)
(0 -0 0)
(0 -0 0)
(0 6.19139e-17 0)
(0 -5.45542e-17 0)
(0 -5.46683e-17 0)
(0 4.81272e-17 0)
(0 -0 0)
(0 -3.95536e-17 0)
(0 4.23879e-17 0)
(0 -3.97271e-17 0)
(0 3.25625e-17 0)
(0 -0 0)
(0 -0 0)
(0 -3.81146e-18 0)
(0 -0 0)
(0 -3.32808e-17 0)
(0 2.48574e-17 0)
(0 2.89921e-17 0)
(0 -2.70353e-17 0)
(0 -0 0)
(0 -0 0)
(0 -2.62093e-17 0)
(0 8.12644e-18 0)
(0 3.77708e-17 0)
(0 -0 0)
(0 -0 0)
(0 -6.04434e-18 0)
(0 -0 0)
(0 -3.11538e-17 0)
(0 -9.61529e-18 0)
(0 2.66912e-17 0)
(0 -0 0)
(0 7.60244e-18 0)
(0 1.40412e-17 0)
(0 -0 0)
(0 -1.19507e-17 0)
(0 -1.10145e-17 0)
(0 1.01451e-17 0)
(0 -0 0)
(0 8.59042e-18 0)
(0 2.36923e-17 0)
(0 -1.45118e-17 0)
(0 -0 0)
(0 -1.22278e-17 0)
(0 1.12144e-17 0)
(0 -0 0)
(0 1.88332e-17 0)
(0 -3.44865e-17 0)
(0 -0 -216.315)
(0 7.43879e-17 0)
(0 -6.78137e-17 0)
(0 -6.5847e-17 0)
(0 5.80443e-17 0)
(0 -3.63695e-18 0)
(0 -0 0)
(0 3.20848e-18 0)
(0 -4.51724e-17 0)
(0 3.67283e-17 0)
(0 5.29848e-18 0)
(0 -4.4693e-17 0)
(0 7.90803e-17 0)
(0 -3.4842e-17 0)
(0 -0 0)
(0 3.81146e-18 0)
(0 -0 0)
(0 -6.65615e-18 0)
(0 -0 0)
(0 -2.31937e-17 0)
(0 4.32565e-17 0)
(0 -2.01561e-17 0)
(0 -2.34656e-17 0)
(0 2.62093e-17 0)
(0 -5.68851e-17 0)
(0 3.02167e-17 0)
(0 -7.01765e-18 0)
(0 6.51498e-18 0)
(0 6.04434e-18 0)
(0 -0 0)
(0 -1.03846e-17 0)
(0 2.88459e-17 0)
(0 -3.55883e-17 0)
(0 8.22705e-18 0)
(0 -0 0)
(0 7.02061e-18 0)
(0 -0 0)
(0 -1.19507e-17 0)
(0 -4.40581e-17 0)
(0 3.04354e-17 0)
(0 -9.33841e-18 0)
(0 1.71808e-17 0)
(0 -2.36923e-17 0)
(0 -7.25589e-18 0)
(0 -1.33249e-17 0)
(0 -1.22278e-17 0)
(0 -0 0)
(0 -0 0)
(0 -0 0)
(0 -0 0)
(0 -0 -219.093)
(0 -0 0)
(0 -0 0)
(0 -0 0)
(0 3.86962e-18 0)
(0 -0 0)
(0 -0 0)
(0 -3.20848e-18 0)
(0 -5.11954e-17 0)
(0 4.80294e-17 0)
(0 -2.64924e-18 0)
(0 9.93178e-18 0)
(0 -0 0)
(0 -0 0)
(0 -0 0)
(0 -0 0)
(0 -0 0)
(0 6.65615e-18 0)
(0 3.10717e-17 0)
(0 -5.79842e-18 0)
(0 -2.16283e-17 0)
(0 -2.51952e-17 0)
(0 4.69313e-18 0)
(0 1.74729e-17 0)
(0 -0 0)
(0 -7.55417e-18 0)
(0 -0 0)
(0 -6.51498e-18 0)
(0 -2.41773e-17 0)
(0 2.2416e-17 0)
(0 1.55769e-17 0)
(0 -0 0)
(0 -0 0)
(0 1.64541e-17 0)
(0 -1.52049e-17 0)
(0 1.40412e-17 0)
(0 -1.29581e-17 0)
(0 1.79261e-17 0)
(0 1.10145e-17 0)
(0 -0 0)
(0 -1.86768e-17 0)
(0 4.29521e-17 0)
(0 -7.89743e-18 0)
(0 7.25589e-18 0)
(0 2.66498e-17 0)
(0 -0 0)
(0 -2.24288e-17 0)
(0 1.02792e-17 0)
(0 -9.41658e-18 0)
(0 -0 0)
(0 4.19789e-17 -221.533)
(0 -3.7194e-17 0)
(0 -2.18754e-18 0)
(0 3.29235e-17 0)
(0 -3.0957e-17 0)
(0 2.72771e-17 0)
(0 -0 0)
(0 -2.24594e-17 0)
(0 -0 0)
(0 -1.97768e-17 0)
(0 1.85447e-17 0)
(0 -2.48295e-18 0)
(0 -2.32589e-18 0)
(0 -0 0)
(0 -4.07541e-18 0)
(0 -0 0)
(0 2.85008e-17 0)
(0 -5.32492e-17 0)
(0 -6.21435e-18 0)
(0 2.60929e-17 0)
(0 1.62212e-17 0)
(0 -1.51171e-17 0)
(0 4.69313e-18 0)
(0 -2.18411e-17 0)
(0 3.25058e-17 0)
(0 -1.51083e-17 0)
(0 7.01765e-18 0)
(0 6.51498e-18 0)
(0 -1.20887e-17 0)
(0 1.1208e-17 0)
(0 -1.03846e-17 0)
(0 -0 0)
(0 -0 0)
(0 -2.46811e-17 0)
(0 3.80122e-17 0)
(0 -2.80824e-17 0)
(0 -0 0)
(0 -5.97537e-18 0)
(0 -0 0)
(0 1.01451e-17 0)
(0 -0 0)
(0 -8.59042e-18 0)
(0 -7.89743e-18 0)
(0 -1.45118e-17 0)
(0 2.66498e-17 0)
(0 -3.05694e-17 0)
(0 -0 0)
(0 -1.02792e-17 0)
(0 1.88332e-17 0)
(0 -0 0)
(0 -4.19789e-17 -223.632)
(0 7.20633e-17 0)
(0 -3.28131e-17 0)
(0 -3.08658e-17 0)
(0 3.28918e-17 0)
(0 1.81847e-18 0)
(0 -2.56258e-17 0)
(0 2.56678e-17 0)
(0 2.4092e-17 0)
(0 -4.52041e-17 0)
(0 1.85447e-17 0)
(0 -2.48295e-18 0)
(0 -0 0)
(0 -1.7421e-17 0)
(0 4.07541e-18 0)
(0 1.14344e-17 0)
(0 -3.5626e-18 0)
(0 2.99527e-17 0)
(0 -2.48574e-17 0)
(0 1.73953e-17 0)
(0 5.40707e-18 0)
(0 -2.01561e-17 0)
(0 -0 0)
(0 -0 0)
(0 1.62529e-17 0)
(0 -0 0)
(0 -0 0)
(0 -1.95449e-17 0)
(0 6.04434e-18 0)
(0 -0 0)
(0 -0 0)
(0 -4.80765e-18 0)
(0 8.89708e-18 0)
(0 -8.22705e-18 0)
(0 -3.80122e-18 0)
(0 7.02061e-18 0)
(0 -6.47905e-18 0)
(0 1.79261e-17 0)
(0 -1.10145e-17 0)
(0 -0 0)
(0 -0 0)
(0 -0 0)
(0 -0 0)
(0 7.2559e-18 0)
(0 -1.99873e-17 0)
(0 2.44555e-17 0)
(0 1.12144e-17 0)
(0 1.02792e-17 0)
(0 9.41658e-18 0)
(0 -1.72433e-17 0)
(0 -0 -225.386)
(0 2.32462e-18 0)
(0 -1.09377e-18 0)
(0 -3.49812e-17 0)
(0 5.99791e-17 0)
(0 -2.72771e-17 0)
(0 -0 0)
(0 -0 0)
(0 -1.50575e-18 0)
(0 -2.82526e-18 0)
(0 2.64924e-18 0)
(0 -2.48295e-18 0)
(0 4.65178e-18 0)
(0 -0 0)
(0 -0 0)
(0 3.81146e-18 0)
(0 -1.06878e-17 0)
(0 1.33123e-17 0)
(0 -0 0)
(0 -0 0)
(0 -1.08141e-17 0)
(0 1.00781e-17 0)
(0 -4.69313e-18 0)
(0 2.18411e-17 0)
(0 -1.62529e-17 0)
(0 -0 0)
(0 1.40353e-17 0)
(0 -2.60599e-17 0)
(0 6.04434e-18 0)
(0 -0 0)
(0 5.19229e-18 0)
(0 4.80765e-18 0)
(0 -0 0)
(0 -0 0)
(0 3.80122e-18 0)
(0 -3.51031e-18 0)
(0 1.29581e-17 0)
(0 -0 0)
(0 -0 0)
(0 5.07256e-18 0)
(0 -1.40076e-17 0)
(0 -4.29521e-18 0)
(0 -0 0)
(0 7.2559e-18 0)
(0 1.33249e-17 0)
(0 -6.11388e-18 0)
(0 -0 0)
(0 5.13958e-18 0)
(0 -4.70829e-18 0)
(0 8.62163e-18 0)
(0 -0 -226.793)
(0 -1.16231e-18 0)
(0 -0 0)
(0 1.02886e-18 0)
(0 -0 0)
(0 -1.81847e-18 0)
(0 -1.70839e-18 0)
(0 -2.72721e-17 0)
(0 2.55977e-17 0)
(0 -0 0)
(0 2.25186e-17 0)
(0 -1.73806e-17 0)
(0 -2.32589e-18 0)
(0 2.17762e-18 0)
(0 -0 0)
(0 -0 0)
(0 -1.42504e-17 0)
(0 2.49606e-17 0)
(0 -2.33038e-17 0)
(0 1.44961e-17 0)
(0 -8.1106e-18 0)
(0 2.01561e-17 0)
(0 -9.38626e-18 0)
(0 -2.18411e-18 0)
(0 6.09483e-18 0)
(0 -7.55417e-18 0)
(0 -0 0)
(0 -0 0)
(0 3.02217e-18 0)
(0 -1.1208e-17 0)
(0 7.78844e-18 0)
(0 2.40382e-18 0)
(0 -0 0)
(0 8.22705e-18 0)
(0 -0 0)
(0 -3.51031e-18 0)
(0 -1.29581e-17 0)
(0 8.96305e-18 0)
(0 2.75363e-18 0)
(0 -1.01451e-17 0)
(0 4.6692e-18 0)
(0 -4.29521e-18 0)
(0 -7.89744e-18 0)
(0 3.62795e-18 0)
(0 -6.66244e-18 0)
(0 -6.11388e-18 0)
(0 1.12144e-17 0)
(0 -5.13958e-18 0)
(0 9.41658e-18 0)
(0 -4.31081e-18 0)
(0 -0 -227.849)
(0 1.74347e-18 0)
(0 -1.64065e-18 0)
(0 -2.05772e-18 0)
(0 -1.64459e-17 0)
(0 1.45478e-17 0)
(0 -0 0)
(0 1.60424e-18 0)
(0 -0 0)
(0 -1.1301e-17 0)
(0 9.27235e-18 0)
(0 -1.24147e-18 0)
(0 -9.30356e-18 0)
(0 6.53287e-18 0)
(0 -0 0)
(0 -0 0)
(0 -0 0)
(0 -3.32808e-18 0)
(0 -1.55359e-18 0)
(0 -0 0)
(0 -1.35177e-17 0)
(0 1.13378e-17 0)
(0 1.17328e-18 0)
(0 4.36822e-18 0)
(0 -6.09483e-18 0)
(0 1.88854e-18 0)
(0 8.77206e-18 0)
(0 -4.88623e-18 0)
(0 -1.51108e-18 0)
(0 9.80699e-18 0)
(0 2.59615e-18 0)
(0 -1.20191e-17 0)
(0 6.67281e-18 0)
(0 -2.05676e-18 0)
(0 -0 0)
(0 -0 0)
(0 -1.61976e-18 0)
(0 8.96305e-18 0)
(0 -0 0)
(0 -2.53628e-18 0)
(0 -4.6692e-18 0)
(0 4.29521e-18 0)
(0 -0 0)
(0 -7.2559e-18 0)
(0 6.66244e-18 0)
(0 6.11388e-18 0)
(0 -1.4018e-17 0)
(0 5.13958e-18 0)
(0 -4.70829e-18 0)
(0 -4.31081e-18 0)
(0 -0 -228.555)
(0 -5.81156e-19 0)
(0 2.73442e-19 0)
(0 -6.68759e-18 0)
(0 4.83703e-19 0)
(0 7.27389e-18 0)
(0 -0 0)
(0 -0 0)
(0 -3.76437e-19 0)
(0 -6.00367e-18 0)
(0 5.29848e-18 0)
(0 -3.72442e-18 0)
(0 -0 0)
(0 1.30657e-17 0)
(0 -0 0)
(0 -1.52458e-17 0)
(0 7.1252e-18 0)
(0 8.32019e-18 0)
(0 -6.21435e-18 0)
(0 -7.24803e-19 0)
(0 -0 0)
(0 -1.88964e-18 0)
(0 -5.86641e-19 0)
(0 2.18411e-18 0)
(0 -4.06322e-18 0)
(0 -2.83281e-18 0)
(0 -8.77206e-19 0)
(0 -2.44312e-18 0)
(0 -1.51108e-18 0)
(0 1.401e-18 -5.73849e-15)
(0 -0 0)
(0 -1.20191e-18 0)
(0 -3.3364e-18 0)
(0 1.02838e-18 0)
(0 -3.80122e-18 0)
(0 3.51031e-18 0)
(0 8.09882e-19 0)
(0 -0 0)
(0 5.50726e-18 0)
(0 -1.26814e-18 0)
(0 -2.3346e-18 0)
(0 1.0738e-18 0)
(0 -6.91026e-18 0)
(0 3.62795e-18 0)
(0 -1.66561e-18 0)
(0 -1.52847e-18 0)
(0 2.80361e-18 0)
(0 -0 0)
(0 1.17707e-18 0)
(0 -0 0)
(0 1.40366e-31 -228.908)
(0 4.64925e-18 -2.79083e-15)
(0 -4.10163e-18 -2.76517e-15)
(0 -4.62987e-18 -2.73866e-15)
(0 4.35332e-18 -2.7113e-15)
(0 -3.63695e-18 -2.68307e-15)
(0 3.41677e-18 2.53362e-14)
(0 -0 -2.62401e-15)
(0 -2.63506e-18 -2.59319e-15)
(0 6.00367e-18 -2.56151e-15)
(0 -2.64924e-18 -2.52898e-15)
(0 -0 -2.49561e-15)
(0 -2.32589e-18 -2.46142e-15)
(0 -2.17762e-18 -2.42641e-15)
(0 6.11312e-18 1.43023e-14)
(0 -8.46314e-34 -2.35405e-15)
(0 -1.7813e-18 -2.31673e-15)
(0 -0 -2.27871e-15)
(0 -0 -2.23999e-15)
(0 -7.24803e-19 9.67454e-15)
(0 2.70353e-18 -1.32343e-14)
(0 -6.29879e-19 8.19984e-15)
(0 -1.75992e-18 -2.07901e-15)
(0 2.18411e-18 -2.03744e-15)
(0 -3.04742e-18 -1.99543e-15)
(0 2.83281e-18 -1.95303e-15)
(0 -8.77206e-19 5.27578e-15)
(0 8.14372e-19 -1.86727e-15)
(0 1.34211e-33 4.36538e-15)
(0 -1.401e-18 -1.78059e-15)
(0 3.89422e-18 8.89677e-15)
(0 -1.20191e-18 -1.69344e-15)
(0 1.11213e-18 -1.64984e-15)
(0 1.02838e-18 -1.60629e-15)
(0 -1.90061e-18 -1.56286e-15)
(0 3.51031e-18 -1.51959e-15)
(0 1.43864e-33 5.158e-15)
(0 -7.46921e-19 -1.4338e-15)
(0 -1.22286e-33 4.24806e-15)
(0 -0 -6.54365e-15)
(0 -1.1673e-18 3.47352e-15)
(0 1.0738e-18 -1.26664e-15)
(0 -0 -1.22605e-15)
(0 1.81397e-18 2.52898e-15)
(0 -2.49842e-18 -1.14664e-15)
(0 7.64235e-19 -1.10789e-15)
(0 1.4018e-18 1.80106e-15)
(0 -6.42447e-19 -1.03248e-15)
(0 -2.0909e-33 1.41478e-15)
(0 -0 -9.60028e-16)
(0 -1.40366e-31 -4.49547)
(0 -4.64925e-18 0)
(0 4.64852e-18 0)
(0 3.60101e-18 0)
(0 -3.38592e-18 0)
(0 3.63695e-18 0)
(0 -3.41677e-18 0)
(0 -0 0)
(0 3.76437e-19 0)
(0 3.53157e-19 0)
(0 -0 0)
(0 -0 0)
(0 2.32589e-18 0)
(0 2.17762e-18 0)
(0 -6.11312e-18 0)
(0 -0 0)
(0 1.7813e-18 0)
(0 -0 0)
(0 -0 0)
(0 2.17441e-18 0)
(0 -2.70353e-18 0)
(0 1.88964e-18 0)
(0 5.86641e-19 0)
(0 -2.18411e-18 0)
(0 3.04742e-18 0)
(0 -2.83281e-18 0)
(0 8.77206e-19 0)
(0 8.14372e-19 0)
(0 -1.34211e-33 0)
(0 1.401e-18 0)
(0 -3.89422e-18 0)
(0 3.60574e-18 0)
(0 1.97555e-33 0)
(0 1.02838e-18 0)
(0 2.85091e-18 0)
(0 -3.51031e-18 0)
(0 1.61976e-18 0)
(0 7.46921e-19 0)
(0 1.22286e-33 0)
(0 -2.53628e-18 0)
(0 1.1673e-18 0)
(0 1.0738e-18 0)
(0 1.97436e-18 0)
(0 -1.81397e-18 0)
(0 -8.32805e-19 0)
(0 2.29271e-18 0)
(0 -7.00902e-19 0)
(0 -6.42447e-19 0)
(0 -1.76561e-18 0)
(0 1.0777e-18 0)
(0 -0 -13.4789)
(0 -9.87965e-18 0)
(0 9.02359e-18 0)
(0 9.77417e-18 0)
(0 -7.25554e-18 0)
(0 7.27389e-18 0)
(0 -6.83354e-18 0)
(0 -0 0)
(0 -3.76437e-19 0)
(0 5.29736e-18 0)
(0 -5.29848e-18 0)
(0 6.20736e-18 0)
(0 -0 0)
(0 -1.30657e-17 0)
(0 -0 0)
(0 1.52458e-17 0)
(0 -7.1252e-18 0)
(0 -4.99211e-18 0)
(0 6.21435e-18 0)
(0 -7.24803e-19 0)
(0 -0 0)
(0 -1.88964e-18 0)
(0 -5.86641e-19 0)
(0 -2.18411e-18 0)
(0 -0 0)
(0 -2.83281e-18 0)
(0 -8.77206e-19 0)
(0 -2.44312e-18 0)
(0 -1.51108e-18 0)
(0 1.401e-18 0)
(0 5.19229e-18 0)
(0 -6.00956e-18 0)
(0 -3.3364e-18 0)
(0 1.02838e-18 0)
(0 3.80122e-18 0)
(0 -3.51031e-18 0)
(0 4.04941e-18 0)
(0 -2.98768e-18 0)
(0 -0 0)
(0 -1.26814e-18 0)
(0 2.3346e-18 0)
(0 -3.22141e-18 0)
(0 4.9359e-18 0)
(0 -3.62795e-18 0)
(0 -1.66561e-18 0)
(0 -1.52847e-18 0)
(0 2.80361e-18 0)
(0 -0 0)
(0 1.17707e-18 0)
(0 -0 0)
(0 -0 -22.4415)
(0 1.74347e-18 0)
(0 -1.64065e-18 0)
(0 -2.05772e-18 0)
(0 1.45111e-17 0)
(0 -1.45478e-17 0)
(0 -0 0)
(0 1.60424e-18 0)
(0 -0 0)
(0 -0 0)
(0 -1.32462e-18 0)
(0 -1.24147e-18 0)
(0 -0 0)
(0 -2.17762e-18 0)
(0 -0 0)
(0 -0 0)
(0 -0 0)
(0 -3.32808e-18 0)
(0 -1.55359e-18 0)
(0 -0 0)
(0 8.1106e-18 0)
(0 -8.81831e-18 0)
(0 1.17328e-18 0)
(0 4.36822e-18 0)
(0 2.03161e-18 0)
(0 9.44271e-18 0)
(0 -5.26324e-18 0)
(0 8.14372e-18 0)
(0 -1.51108e-18 0)
(0 -1.2609e-17 0)
(0 2.59615e-18 0)
(0 7.21147e-18 0)
(0 -2.22427e-18 0)
(0 -2.05676e-18 0)
(0 -0 0)
(0 -0 0)
(0 4.85929e-18 0)
(0 -8.96305e-18 0)
(0 -0 0)
(0 7.60885e-18 0)
(0 -0 0)
(0 -0 0)
(0 -0 0)
(0 -3.62795e-18 0)
(0 3.33122e-18 0)
(0 -6.11388e-18 0)
(0 -2.80361e-18 0)
(0 -5.13958e-18 0)
(0 4.70829e-18 0)
(0 -4.31081e-18 0)
(0 -0 -31.3695)
(0 -1.16231e-18 0)
(0 -0 0)
(0 1.02886e-18 0)
(0 -0 0)
(0 -1.81847e-18 0)
(0 -1.70839e-18 0)
(0 2.40636e-17 0)
(0 -2.25862e-17 0)
(0 -0 0)
(0 -1.98693e-17 0)
(0 2.23465e-17 0)
(0 -2.32589e-18 0)
(0 2.17762e-18 0)
(0 -0 0)
(0 -0 0)
(0 1.42504e-17 0)
(0 -2.82886e-17 0)
(0 2.6411e-17 0)
(0 -8.69763e-18 0)
(0 1.35177e-17 0)
(0 -2.01561e-17 0)
(0 9.38626e-18 0)
(0 -2.18411e-18 0)
(0 -1.0158e-17 0)
(0 7.55417e-18 0)
(0 -0 0)
(0 -0 0)
(0 3.02217e-18 0)
(0 -0 0)
(0 -2.59615e-18 0)
(0 2.40382e-18 0)
(0 -0 0)
(0 -8.22705e-18 0)
(0 -0 0)
(0 3.51031e-18 0)
(0 6.47905e-18 0)
(0 -2.98768e-18 0)
(0 -8.26089e-18 0)
(0 -0 0)
(0 4.6692e-18 0)
(0 -4.29521e-18 0)
(0 7.89744e-18 0)
(0 -1.08838e-17 0)
(0 -6.66244e-18 0)
(0 6.11388e-18 0)
(0 -0 0)
(0 -5.13958e-18 0)
(0 -0 0)
(0 1.29324e-17 0)
(0 -0 -40.2492)
(0 2.32462e-18 0)
(0 -1.09377e-18 0)
(0 3.08658e-17 0)
(0 -6.38488e-17 0)
(0 3.0914e-17 0)
(0 -0 0)
(0 -0 0)
(0 -1.50575e-18 0)
(0 -2.54273e-17 0)
(0 2.38432e-17 0)
(0 -2.48295e-18 0)
(0 4.65178e-18 0)
(0 -0 0)
(0 -0 0)
(0 3.81146e-18 0)
(0 3.5626e-18 0)
(0 -0 0)
(0 -0 0)
(0 -0 0)
(0 1.08141e-17 0)
(0 -1.00781e-17 0)
(0 -4.69313e-18 0)
(0 -1.31047e-17 0)
(0 1.62529e-17 0)
(0 -0 0)
(0 -1.40353e-17 0)
(0 2.60599e-17 0)
(0 -1.8133e-17 0)
(0 -0 0)
(0 5.19229e-18 0)
(0 4.80765e-18 0)
(0 -0 0)
(0 -0 0)
(0 3.80122e-18 0)
(0 1.05309e-17 0)
(0 -0 0)
(0 -2.39015e-17 0)
(0 -0 0)
(0 5.07256e-18 0)
(0 4.6692e-18 0)
(0 1.28856e-17 0)
(0 -0 0)
(0 7.2559e-18 0)
(0 -0 0)
(0 -0 0)
(0 -5.60721e-18 0)
(0 5.13958e-18 0)
(0 1.41249e-17 0)
(0 -8.62163e-18 0)
(0 3.70402e-17 -49.0668)
(0 -7.67126e-17 0)
(0 3.71881e-17 0)
(0 3.49812e-17 0)
(0 -2.90222e-17 0)
(0 1.81847e-18 0)
(0 2.90426e-17 0)
(0 -2.56678e-17 0)
(0 -0 0)
(0 2.26021e-17 0)
(0 -2.38432e-17 0)
(0 -2.48295e-18 0)
(0 -0 0)
(0 1.7421e-17 0)
(0 4.07541e-18 0)
(0 -1.90573e-17 0)
(0 -3.5626e-18 0)
(0 -2.32965e-17 0)
(0 2.48574e-17 0)
(0 -2.89921e-17 0)
(0 5.40707e-18 0)
(0 2.01561e-17 0)
(0 -0 0)
(0 -0 0)
(0 -1.62529e-17 0)
(0 -0 0)
(0 -0 0)
(0 1.95449e-17 0)
(0 6.04434e-18 0)
(0 -1.1208e-17 0)
(0 -0 0)
(0 -1.44229e-17 0)
(0 -0 0)
(0 8.22705e-18 0)
(0 -3.80122e-18 0)
(0 7.02061e-18 0)
(0 -6.47905e-18 0)
(0 -5.97537e-18 0)
(0 1.10145e-17 0)
(0 -0 0)
(0 -0 0)
(0 -0 0)
(0 -0 0)
(0 -7.2559e-18 0)
(0 1.99873e-17 0)
(0 -0 0)
(0 1.12144e-17 0)
(0 1.02792e-17 0)
(0 -9.41658e-18 0)
(0 -0 0)
(0 -3.70402e-17 -57.8087)
(0 3.7194e-17 0)
(0 -2.18754e-18 0)
(0 -3.29235e-17 0)
(0 3.0957e-17 0)
(0 -3.0914e-17 0)
(0 -0 0)
(0 2.88763e-17 0)
(0 -0 0)
(0 2.54273e-17 0)
(0 -2.38432e-17 0)
(0 -2.48295e-18 0)
(0 -2.32589e-18 0)
(0 -0 0)
(0 -4.07541e-18 0)
(0 -0 0)
(0 -2.85008e-17 0)
(0 5.32492e-17 0)
(0 -6.21435e-18 0)
(0 -2.02945e-17 0)
(0 -2.70353e-17 0)
(0 2.51952e-17 0)
(0 4.69313e-18 0)
(0 1.31047e-17 0)
(0 -3.25058e-17 0)
(0 1.51083e-17 0)
(0 7.01765e-18 0)
(0 6.51498e-18 0)
(0 1.20887e-17 0)
(0 -1.1208e-17 0)
(0 -1.03846e-17 0)
(0 -0 0)
(0 -0 0)
(0 8.22705e-18 0)
(0 -2.28073e-17 0)
(0 -0 0)
(0 -0 0)
(0 -5.97537e-18 0)
(0 -0 0)
(0 -1.01451e-17 0)
(0 1.86768e-17 0)
(0 -8.59042e-18 0)
(0 -7.89743e-18 0)
(0 1.45118e-17 0)
(0 -2.66498e-17 0)
(0 1.83417e-17 0)
(0 -0 0)
(0 -1.02792e-17 0)
(0 -1.88332e-17 0)
(0 2.58649e-17 0)
(0 -0 -66.4615)
(0 -0 0)
(0 -0 0)
(0 -0 0)
(0 3.86962e-18 0)
(0 -0 0)
(0 -0 0)
(0 -3.20848e-18 0)
(0 4.51724e-17 0)
(0 -4.23789e-17 0)
(0 -2.64924e-18 0)
(0 9.93178e-18 0)
(0 -0 0)
(0 -0 0)
(0 -0 0)
(0 -0 0)
(0 -0 0)
(0 6.65615e-18 0)
(0 -1.8643e-17 0)
(0 -5.79842e-18 0)
(0 2.16283e-17 0)
(0 1.51171e-17 0)
(0 4.69313e-18 0)
(0 -1.74729e-17 0)
(0 -0 0)
(0 -7.55417e-18 0)
(0 -0 0)
(0 -6.51498e-18 0)
(0 2.41773e-17 0)
(0 -2.2416e-17 0)
(0 1.55769e-17 0)
(0 -0 0)
(0 -0 0)
(0 1.64541e-17 0)
(0 -1.52049e-17 0)
(0 -1.40412e-17 0)
(0 1.29581e-17 0)
(0 1.79261e-17 0)
(0 1.10145e-17 0)
(0 -0 0)
(0 1.86768e-17 0)
(0 -2.57713e-17 0)
(0 2.36923e-17 0)
(0 7.25589e-18 0)
(0 -0 0)
(0 -0 0)
(0 2.24288e-17 0)
(0 -1.02792e-17 0)
(0 -9.41658e-18 0)
(0 -1.72433e-17 0)
(0 -0 -75.0118)
(0 -7.43879e-17 0)
(0 7.21887e-17 0)
(0 6.5847e-17 0)
(0 -6.57836e-17 0)
(0 -3.63695e-18 0)
(0 -0 0)
(0 3.20848e-18 0)
(0 5.11954e-17 0)
(0 -5.36799e-17 0)
(0 5.29848e-18 0)
(0 3.47612e-17 0)
(0 -6.97767e-17 0)
(0 3.4842e-17 0)
(0 -0 0)
(0 3.81146e-18 0)
(0 -0 0)
(0 -6.65615e-18 0)
(0 -0 0)
(0 2.31937e-17 0)
(0 -4.32565e-17 0)
(0 2.01561e-17 0)
(0 1.40794e-17 0)
(0 -2.62093e-17 0)
(0 2.43793e-17 0)
(0 -3.02167e-17 0)
(0 -7.01765e-18 0)
(0 6.51498e-18 0)
(0 6.04434e-18 0)
(0 -0 0)
(0 -1.03846e-17 0)
(0 -9.61529e-18 0)
(0 3.55883e-17 0)
(0 -2.46811e-17 0)
(0 -0 0)
(0 7.02061e-18 0)
(0 -0 0)
(0 -1.19507e-17 0)
(0 -0 0)
(0 -1.01451e-17 0)
(0 -9.33841e-18 0)
(0 -1.71808e-17 0)
(0 7.89743e-18 0)
(0 -7.25589e-18 0)
(0 -1.33249e-17 0)
(0 1.22278e-17 0)
(0 -2.24288e-17 0)
(0 -0 0)
(0 -0 0)
(0 -0 0)
(0 -2.46935e-18 -83.4464)
(0 -0 0)
(0 -0 0)
(0 -0 0)
(0 -6.19139e-17 0)
(0 6.18281e-17 0)
(0 -0 0)
(0 -3.20848e-18 0)
(0 -0 0)
(0 5.08546e-17 0)
(0 -4.23879e-17 0)
(0 3.97271e-17 0)
(0 -4.1866e-17 0)
(0 -0 0)
(0 -0 0)
(0 -3.81146e-18 0)
(0 -0 0)
(0 1.99685e-17 0)
(0 -2.48574e-17 0)
(0 -1.73953e-17 0)
(0 1.62212e-17 0)
(0 -0 0)
(0 -0 0)
(0 4.36822e-17 0)
(0 8.12644e-18 0)
(0 -2.26625e-17 0)
(0 -0 0)
(0 -0 0)
(0 -6.04434e-18 0)
(0 -0 0)
(0 1.03846e-17 0)
(0 -9.61529e-18 0)
(0 -8.89708e-18 0)
(0 -0 0)
(0 7.60244e-18 0)
(0 1.40412e-17 0)
(0 -0 0)
(0 -1.19507e-17 0)
(0 3.30436e-17 0)
(0 -3.04354e-17 0)
(0 -0 0)
(0 8.59042e-18 0)
(0 2.36923e-17 0)
(0 -1.45118e-17 0)
(0 -0 0)
(0 1.22278e-17 0)
(0 -1.12144e-17 0)
(0 -0 0)
(0 -1.88332e-17 0)
(0 -0 0)
(0 2.46935e-18 -91.7524)
(0 -4.64925e-18 0)
(0 7.43763e-17 0)
(0 -6.5847e-17 0)
(0 -0 0)
(0 -3.63695e-18 0)
(0 5.46683e-17 0)
(0 -5.13357e-17 0)
(0 -0 0)
(0 5.65051e-18 0)
(0 -0 0)
(0 -0 0)
(0 -0 0)
(0 -0 0)
(0 3.66787e-17 0)
(0 -6.86063e-17 0)
(0 2.85008e-17 0)
(0 3.32808e-17 0)
(0 -3.10717e-17 0)
(0 -0 0)
(0 5.40707e-18 0)
(0 -0 0)
(0 -0 0)
(0 -0 0)
(0 3.25058e-17 0)
(0 -0 0)
(0 -2.10529e-17 0)
(0 -1.95449e-17 0)
(0 1.20887e-17 0)
(0 -1.1208e-17 0)
(0 3.11538e-17 0)
(0 -1.92306e-17 0)
(0 -8.89708e-18 0)
(0 -0 0)
(0 -0 0)
(0 -1.40412e-17 0)
(0 1.29581e-17 0)
(0 1.19507e-17 0)
(0 -1.10145e-17 0)
(0 2.02903e-17 0)
(0 -0 0)
(0 -8.59042e-18 0)
(0 -3.15897e-17 0)
(0 1.45118e-17 0)
(0 -1.33249e-17 0)
(0 -1.22278e-17 0)
(0 2.24288e-17 0)
(0 -2.05583e-17 0)
(0 -0 0)
(0 1.72433e-17 0)
(0 -0 -99.9169)
(0 9.29849e-18 0)
(0 -4.37508e-18 0)
(0 -6.99624e-17 0)
(0 6.57836e-17 0)
(0 -5.45542e-17 0)
(0 1.09337e-16 0)
(0 -9.62544e-17 0)
(0 -0 0)
(0 3.95536e-17 0)
(0 -0 0)
(0 -0 0)
(0 4.65178e-18 0)
(0 4.35524e-18 0)
(0 -3.66787e-17 0)
(0 3.04917e-17 0)
(0 -0 0)
(0 -0 0)
(0 6.21435e-18 0)
(0 5.79842e-18 0)
(0 -0 0)
(0 -0 0)
(0 -9.38626e-18 0)
(0 -0 0)
(0 -0 0)
(0 -0 0)
(0 -7.01765e-18 0)
(0 -6.51498e-18 0)
(0 -1.20887e-17 0)
(0 3.3624e-17 0)
(0 -0 0)
(0 -0 0)
(0 1.77942e-17 0)
(0 -2.46811e-17 0)
(0 1.52049e-17 0)
(0 -0 0)
(0 -1.29581e-17 0)
(0 -1.19507e-17 0)
(0 4.40581e-17 0)
(0 1.01451e-17 0)
(0 -1.86768e-17 0)
(0 -0 0)
(0 -1.57949e-17 0)
(0 -1.45118e-17 0)
(0 1.33249e-17 0)
(0 -0 0)
(0 -1.12144e-17 0)
(0 1.02792e-17 0)
(0 -3.76663e-17 0)
(0 1.72433e-17 0)
(0 -0 -107.927)
(0 -4.64925e-18 0)
(0 -7.00012e-17 0)
(0 6.99624e-17 0)
(0 -6.57836e-17 0)
(0 5.81911e-17 0)
(0 3.41677e-18 0)
(0 -0 0)
(0 -0 0)
(0 4.52041e-17 0)
(0 -8.47757e-17 0)
(0 7.94542e-17 0)
(0 -4.65178e-17 0)
(0 -4.35524e-18 0)
(0 2.44525e-17 0)
(0 -2.28688e-17 0)
(0 7.1252e-18 0)
(0 -0 0)
(0 -6.21435e-18 0)
(0 -0 0)
(0 4.32565e-17 0)
(0 -4.03123e-17 0)
(0 9.38626e-18 0)
(0 3.49458e-17 0)
(0 -0 0)
(0 -3.02167e-17 0)
(0 -7.01765e-18 0)
(0 -0 0)
(0 -1.20887e-17 0)
(0 4.4832e-17 0)
(0 -3.11538e-17 0)
(0 -0 0)
(0 1.77942e-17 0)
(0 -2.46811e-17 0)
(0 -1.52049e-17 0)
(0 -0 0)
(0 2.59162e-17 0)
(0 -2.39015e-17 0)
(0 -3.30436e-17 0)
(0 -0 0)
(0 -0 0)
(0 -0 0)
(0 1.57949e-17 0)
(0 1.45118e-17 0)
(0 3.99746e-17 0)
(0 -4.89111e-17 0)
(0 3.36433e-17 0)
(0 1.02792e-17 0)
(0 -0 0)
(0 -0 0)
(0 -4.9387e-18 -115.771)
(0 7.43879e-17 0)
(0 -7.00012e-17 0)
(0 -0 0)
(0 -6.19139e-17 0)
(0 6.18281e-17 0)
(0 -3.41677e-18 0)
(0 -5.77527e-17 0)
(0 5.42069e-17 0)
(0 -0 0)
(0 -0 0)
(0 4.96589e-18 0)
(0 4.65178e-18 0)
(0 -0 0)
(0 4.07541e-17 0)
(0 -3.04917e-17 0)
(0 5.70016e-17 0)
(0 -1.13155e-16 0)
(0 6.21435e-17 0)
(0 -5.21858e-17 0)
(0 4.32565e-17 0)
(0 -0 0)
(0 -0 0)
(0 -0 0)
(0 -8.12644e-18 0)
(0 -0 0)
(0 -7.01765e-18 0)
(0 -0 0)
(0 1.20887e-17 0)
(0 -2.2416e-17 0)
(0 1.03846e-17 0)
(0 -9.61529e-18 0)
(0 -0 0)
(0 -1.64541e-17 0)
(0 -0 0)
(0 -1.40412e-17 0)
(0 -0 0)
(0 -0 0)
(0 1.10145e-17 0)
(0 -0 0)
(0 -1.86768e-17 0)
(0 -0 0)
(0 1.57949e-17 0)
(0 1.45118e-17 0)
(0 -1.33249e-17 0)
(0 1.22278e-17 0)
(0 -2.24288e-17 0)
(0 4.11166e-17 0)
(0 -0 0)
(0 1.72432e-17 0)
(0 9.8774e-18 -123.437)
(0 4.64925e-18 0)
(0 -0 0)
(0 6.5847e-17 0)
(0 -6.57836e-17 0)
(0 -7.27389e-18 0)
(0 6.83354e-18 0)
(0 5.13357e-17 0)
(0 -6.02299e-18 0)
(0 -9.04082e-17 0)
(0 3.70894e-17 0)
(0 -9.93178e-18 0)
(0 -4.65178e-18 0)
(0 -0 0)
(0 -0 0)
(0 -0 0)
(0 -6.41268e-17 0)
(0 5.99053e-17 0)
(0 -1.24287e-17 0)
(0 -1.15968e-17 0)
(0 4.32565e-17 0)
(0 -4.03123e-17 0)
(0 -0 0)
(0 -3.49458e-17 0)
(0 7.31379e-17 0)
(0 -0 0)
(0 1.40353e-17 0)
(0 -6.51498e-17 0)
(0 -0 0)
(0 4.4832e-17 0)
(0 -5.19229e-17 0)
(0 -9.61529e-18 0)
(0 -8.89708e-18 0)
(0 3.29082e-17 0)
(0 1.52049e-17 0)
(0 4.21237e-17 0)
(0 -2.59162e-17 0)
(0 3.58522e-17 0)
(0 -4.40581e-17 0)
(0 5.07256e-17 0)
(0 1.86768e-17 0)
(0 -6.87234e-17 0)
(0 -1.57949e-17 0)
(0 1.45118e-17 0)
(0 -0 0)
(0 -0 0)
(0 -2.24288e-17 0)
(0 -0 0)
(0 -0 0)
(0 -0 0)
(0 -8.39579e-17 -130.912)
(0 1.44127e-16 0)
(0 -0 0)
(0 -6.99624e-17 0)
(0 3.86962e-18 0)
(0 -5.81911e-17 0)
(0 4.78348e-17 0)
(0 5.13357e-17 0)
(0 -6.02299e-18 0)
(0 -9.04082e-17 0)
(0 9.00742e-17 0)
(0 -2.97953e-17 0)
(0 -4.1866e-17 0)
(0 1.04526e-16 0)
(0 -0 0)
(0 -6.09834e-17 0)
(0 7.1252e-18 0)
(0 5.32492e-17 0)
(0 -4.35004e-17 0)
(0 1.15968e-17 0)
(0 -1.08141e-17 0)
(0 -0 0)
(0 -3.7545e-17 0)
(0 8.73644e-18 0)
(0 2.43793e-17 0)
(0 -0 0)
(0 -2.80706e-17 0)
(0 3.90899e-17 0)
(0 -0 0)
(0 2.2416e-17 0)
(0 3.11538e-17 0)
(0 -3.84612e-17 0)
(0 5.33825e-17 0)
(0 -1.64541e-17 0)
(0 -1.52049e-17 0)
(0 2.80824e-17 0)
(0 -1.29581e-17 0)
(0 1.19507e-17 0)